VARIABLES="XP","YP","P","U","V","T"
ZONE T="Zone 001" I=    42 J=    42 F=POINT
  0.000E+00  0.000E+00  1.386E+00 -3.998E-07  1.136E-01  2.931E+02
  0.000E+00  1.250E-03  1.369E+00  0.000E+00  0.000E+00  3.131E+02
  0.000E+00  3.750E-03  1.335E+00  0.000E+00  0.000E+00  3.131E+02
  0.000E+00  6.250E-03  1.301E+00  0.000E+00  0.000E+00  3.131E+02
  0.000E+00  8.750E-03  1.266E+00  0.000E+00  0.000E+00  3.131E+02
  0.000E+00  1.125E-02  1.232E+00  0.000E+00  0.000E+00  3.131E+02
  0.000E+00  1.375E-02  1.197E+00  0.000E+00  0.000E+00  3.131E+02
  0.000E+00  1.625E-02  1.163E+00  0.000E+00  0.000E+00  3.131E+02
  0.000E+00  1.875E-02  1.128E+00  0.000E+00  0.000E+00  3.131E+02
  0.000E+00  2.125E-02  1.094E+00  0.000E+00  0.000E+00  3.131E+02
  0.000E+00  2.375E-02  1.059E+00  0.000E+00  0.000E+00  3.131E+02
  0.000E+00  2.625E-02  1.024E+00  0.000E+00  0.000E+00  3.131E+02
  0.000E+00  2.875E-02  9.898E-01  0.000E+00  0.000E+00  3.131E+02
  0.000E+00  3.125E-02  9.552E-01  0.000E+00  0.000E+00  3.131E+02
  0.000E+00  3.375E-02  9.206E-01  0.000E+00  0.000E+00  3.131E+02
  0.000E+00  3.625E-02  8.860E-01  0.000E+00  0.000E+00  3.131E+02
  0.000E+00  3.875E-02  8.513E-01  0.000E+00  0.000E+00  3.131E+02
  0.000E+00  4.125E-02  8.167E-01  0.000E+00  0.000E+00  3.131E+02
  0.000E+00  4.375E-02  7.821E-01  0.000E+00  0.000E+00  3.131E+02
  0.000E+00  4.625E-02  7.474E-01  0.000E+00  0.000E+00  3.131E+02
  0.000E+00  4.875E-02  7.127E-01  0.000E+00  0.000E+00  3.131E+02
  0.000E+00  5.125E-02  6.781E-01  0.000E+00  0.000E+00  3.131E+02
  0.000E+00  5.375E-02  6.434E-01  0.000E+00  0.000E+00  3.131E+02
  0.000E+00  5.625E-02  6.087E-01  0.000E+00  0.000E+00  3.131E+02
  0.000E+00  5.875E-02  5.740E-01  0.000E+00  0.000E+00  3.131E+02
  0.000E+00  6.125E-02  5.393E-01  0.000E+00  0.000E+00  3.131E+02
  0.000E+00  6.375E-02  5.046E-01  0.000E+00  0.000E+00  3.131E+02
  0.000E+00  6.625E-02  4.698E-01  0.000E+00  0.000E+00  3.131E+02
  0.000E+00  6.875E-02  4.351E-01  0.000E+00  0.000E+00  3.131E+02
  0.000E+00  7.125E-02  4.004E-01  0.000E+00  0.000E+00  3.131E+02
  0.000E+00  7.375E-02  3.656E-01  0.000E+00  0.000E+00  3.131E+02
  0.000E+00  7.625E-02  3.308E-01  0.000E+00  0.000E+00  3.131E+02
  0.000E+00  7.875E-02  2.961E-01  0.000E+00  0.000E+00  3.131E+02
  0.000E+00  8.125E-02  2.613E-01  0.000E+00  0.000E+00  3.131E+02
  0.000E+00  8.375E-02  2.265E-01  0.000E+00  0.000E+00  3.131E+02
  0.000E+00  8.625E-02  1.917E-01  0.000E+00  0.000E+00  3.131E+02
  0.000E+00  8.875E-02  1.568E-01  0.000E+00  0.000E+00  3.131E+02
  0.000E+00  9.125E-02  1.220E-01  0.000E+00  0.000E+00  3.131E+02
  0.000E+00  9.375E-02  8.718E-02  0.000E+00  0.000E+00  3.131E+02
  0.000E+00  9.625E-02  5.231E-02  0.000E+00  0.000E+00  3.131E+02
  0.000E+00  9.875E-02  1.748E-02  0.000E+00  0.000E+00  3.131E+02
  0.000E+00  1.000E-01  0.000E+00  7.526E-08  1.134E-01  3.126E+02
  6.250E-05  0.000E+00  1.386E+00 -3.998E-07  1.136E-01  2.931E+02
  6.250E-05  1.250E-03  1.369E+00 -3.998E-07  1.136E-01  3.098E+02
  6.250E-05  3.750E-03  1.335E+00 -4.075E-07  1.135E-01  3.114E+02
  6.250E-05  6.250E-03  1.301E+00 -2.400E-07  1.135E-01  3.116E+02
  6.250E-05  8.750E-03  1.266E+00  9.273E-08  1.135E-01  3.118E+02
  6.250E-05  1.125E-02  1.232E+00 -4.157E-08  1.135E-01  3.119E+02
  6.250E-05  1.375E-02  1.197E+00  1.239E-07  1.134E-01  3.120E+02
  6.250E-05  1.625E-02  1.163E+00  1.765E-07  1.134E-01  3.121E+02
  6.250E-05  1.875E-02  1.128E+00 -1.519E-07  1.134E-01  3.121E+02
  6.250E-05  2.125E-02  1.094E+00  5.712E-08  1.134E-01  3.122E+02
  6.250E-05  2.375E-02  1.059E+00  1.591E-08  1.134E-01  3.122E+02
  6.250E-05  2.625E-02  1.024E+00 -1.124E-07  1.134E-01  3.122E+02
  6.250E-05  2.875E-02  9.898E-01 -1.372E-07  1.134E-01  3.123E+02
  6.250E-05  3.125E-02  9.552E-01 -1.268E-07  1.133E-01  3.123E+02
  6.250E-05  3.375E-02  9.206E-01  6.761E-08  1.133E-01  3.123E+02
  6.250E-05  3.625E-02  8.860E-01 -2.289E-07  1.133E-01  3.123E+02
  6.250E-05  3.875E-02  8.513E-01  6.406E-08  1.133E-01  3.123E+02
  6.250E-05  4.125E-02  8.167E-01 -1.202E-07  1.133E-01  3.124E+02
  6.250E-05  4.375E-02  7.821E-01  1.605E-07  1.133E-01  3.124E+02
  6.250E-05  4.625E-02  7.474E-01 -1.200E-07  1.133E-01  3.124E+02
  6.250E-05  4.875E-02  7.127E-01  1.189E-08  1.133E-01  3.124E+02
  6.250E-05  5.125E-02  6.781E-01 -4.339E-08  1.133E-01  3.124E+02
  6.250E-05  5.375E-02  6.434E-01  1.083E-07  1.133E-01  3.124E+02
  6.250E-05  5.625E-02  6.087E-01 -6.731E-08  1.133E-01  3.125E+02
  6.250E-05  5.875E-02  5.740E-01  5.163E-08  1.133E-01  3.125E+02
  6.250E-05  6.125E-02  5.393E-01 -6.016E-08  1.133E-01  3.125E+02
  6.250E-05  6.375E-02  5.046E-01 -4.449E-08  1.133E-01  3.125E+02
  6.250E-05  6.625E-02  4.698E-01 -9.466E-09  1.133E-01  3.125E+02
  6.250E-05  6.875E-02  4.351E-01 -7.705E-09  1.133E-01  3.125E+02
  6.250E-05  7.125E-02  4.004E-01 -6.041E-08  1.133E-01  3.125E+02
  6.250E-05  7.375E-02  3.656E-01 -5.764E-08  1.133E-01  3.125E+02
  6.250E-05  7.625E-02  3.308E-01 -3.985E-08  1.133E-01  3.125E+02
  6.250E-05  7.875E-02  2.961E-01 -2.473E-08  1.133E-01  3.125E+02
  6.250E-05  8.125E-02  2.613E-01 -8.421E-08  1.133E-01  3.125E+02
  6.250E-05  8.375E-02  2.265E-01 -4.839E-08  1.133E-01  3.126E+02
  6.250E-05  8.625E-02  1.917E-01 -4.684E-08  1.133E-01  3.126E+02
  6.250E-05  8.875E-02  1.568E-01 -5.807E-08  1.133E-01  3.126E+02
  6.250E-05  9.125E-02  1.220E-01 -3.467E-08  1.133E-01  3.126E+02
  6.250E-05  9.375E-02  8.718E-02 -8.590E-08  1.133E-01  3.126E+02
  6.250E-05  9.625E-02  5.231E-02  2.882E-08  1.133E-01  3.126E+02
  6.250E-05  9.875E-02  1.748E-02  7.526E-08  1.134E-01  3.126E+02
  6.250E-05  1.000E-01  0.000E+00  7.526E-08  1.134E-01  3.126E+02
  1.875E-04  0.000E+00  1.386E+00  1.968E-06  3.297E-01  2.931E+02
  1.875E-04  1.250E-03  1.369E+00  1.968E-06  3.297E-01  3.039E+02
  1.875E-04  3.750E-03  1.335E+00  3.428E-06  3.296E-01  3.078E+02
  1.875E-04  6.250E-03  1.301E+00  3.101E-06  3.295E-01  3.086E+02
  1.875E-04  8.750E-03  1.266E+00  2.958E-06  3.294E-01  3.091E+02
  1.875E-04  1.125E-02  1.232E+00  2.361E-06  3.293E-01  3.094E+02
  1.875E-04  1.375E-02  1.197E+00  2.286E-06  3.293E-01  3.097E+02
  1.875E-04  1.625E-02  1.163E+00  2.375E-06  3.292E-01  3.099E+02
  1.875E-04  1.875E-02  1.128E+00  1.694E-06  3.292E-01  3.100E+02
  1.875E-04  2.125E-02  1.094E+00  1.619E-06  3.291E-01  3.102E+02
  1.875E-04  2.375E-02  1.059E+00  1.137E-06  3.291E-01  3.103E+02
  1.875E-04  2.625E-02  1.024E+00  1.056E-06  3.290E-01  3.104E+02
  1.875E-04  2.875E-02  9.898E-01  4.136E-07  3.290E-01  3.105E+02
  1.875E-04  3.125E-02  9.552E-01  4.376E-07  3.290E-01  3.106E+02
  1.875E-04  3.375E-02  9.206E-01  7.540E-07  3.289E-01  3.106E+02
  1.875E-04  3.625E-02  8.860E-01  1.390E-07  3.289E-01  3.107E+02
  1.875E-04  3.875E-02  8.513E-01  8.368E-07  3.289E-01  3.107E+02
  1.875E-04  4.125E-02  8.167E-01  7.253E-08  3.289E-01  3.108E+02
  1.875E-04  4.375E-02  7.821E-01  7.328E-07  3.289E-01  3.108E+02
  1.875E-04  4.625E-02  7.474E-01  5.069E-08  3.289E-01  3.109E+02
  1.875E-04  4.875E-02  7.127E-01  4.979E-07  3.289E-01  3.109E+02
  1.875E-04  5.125E-02  6.781E-01 -3.860E-08  3.288E-01  3.110E+02
  1.875E-04  5.375E-02  6.434E-01  4.432E-07  3.288E-01  3.110E+02
  1.875E-04  5.625E-02  6.087E-01 -1.344E-07  3.288E-01  3.111E+02
  1.875E-04  5.875E-02  5.740E-01  1.854E-07  3.288E-01  3.111E+02
  1.875E-04  6.125E-02  5.393E-01 -3.846E-08  3.288E-01  3.111E+02
  1.875E-04  6.375E-02  5.046E-01 -8.465E-08  3.288E-01  3.112E+02
  1.875E-04  6.625E-02  4.698E-01 -1.291E-07  3.288E-01  3.112E+02
  1.875E-04  6.875E-02  4.351E-01 -8.505E-08  3.288E-01  3.112E+02
  1.875E-04  7.125E-02  4.004E-01 -1.571E-07  3.288E-01  3.112E+02
  1.875E-04  7.375E-02  3.656E-01 -1.835E-07  3.288E-01  3.113E+02
  1.875E-04  7.625E-02  3.308E-01 -2.879E-07  3.288E-01  3.113E+02
  1.875E-04  7.875E-02  2.961E-01 -2.705E-07  3.288E-01  3.113E+02
  1.875E-04  8.125E-02  2.613E-01 -3.242E-07  3.288E-01  3.113E+02
  1.875E-04  8.375E-02  2.265E-01 -3.721E-07  3.288E-01  3.114E+02
  1.875E-04  8.625E-02  1.917E-01 -3.363E-07  3.289E-01  3.114E+02
  1.875E-04  8.875E-02  1.568E-01 -4.039E-07  3.289E-01  3.114E+02
  1.875E-04  9.125E-02  1.220E-01 -3.892E-07  3.289E-01  3.114E+02
  1.875E-04  9.375E-02  8.718E-02 -4.595E-07  3.289E-01  3.114E+02
  1.875E-04  9.625E-02  5.231E-02 -4.013E-07  3.289E-01  3.115E+02
  1.875E-04  9.875E-02  1.748E-02 -2.578E-07  3.289E-01  3.115E+02
  1.875E-04  1.000E-01  0.000E+00 -2.578E-07  3.289E-01  3.115E+02
  3.125E-04  0.000E+00  1.386E+00  6.599E-06  5.347E-01  2.931E+02
  3.125E-04  1.250E-03  1.369E+00  6.599E-06  5.347E-01  2.995E+02
  3.125E-04  3.750E-03  1.335E+00  1.093E-05  5.345E-01  3.041E+02
  3.125E-04  6.250E-03  1.301E+00  9.438E-06  5.344E-01  3.056E+02
  3.125E-04  8.750E-03  1.266E+00  8.933E-06  5.342E-01  3.064E+02
  3.125E-04  1.125E-02  1.232E+00  7.461E-06  5.341E-01  3.070E+02
  3.125E-04  1.375E-02  1.197E+00  6.418E-06  5.340E-01  3.074E+02
  3.125E-04  1.625E-02  1.163E+00  6.316E-06  5.339E-01  3.077E+02
  3.125E-04  1.875E-02  1.128E+00  4.802E-06  5.338E-01  3.080E+02
  3.125E-04  2.125E-02  1.094E+00  4.697E-06  5.337E-01  3.082E+02
  3.125E-04  2.375E-02  1.059E+00  3.374E-06  5.337E-01  3.084E+02
  3.125E-04  2.625E-02  1.024E+00  3.314E-06  5.336E-01  3.085E+02
  3.125E-04  2.875E-02  9.898E-01  1.862E-06  5.335E-01  3.087E+02
  3.125E-04  3.125E-02  9.552E-01  2.029E-06  5.335E-01  3.088E+02
  3.125E-04  3.375E-02  9.206E-01  2.494E-06  5.334E-01  3.089E+02
  3.125E-04  3.625E-02  8.860E-01  1.591E-06  5.334E-01  3.091E+02
  3.125E-04  3.875E-02  8.513E-01  2.499E-06  5.334E-01  3.091E+02
  3.125E-04  4.125E-02  8.167E-01  1.057E-06  5.333E-01  3.092E+02
  3.125E-04  4.375E-02  7.821E-01  1.873E-06  5.333E-01  3.093E+02
  3.125E-04  4.625E-02  7.474E-01  8.750E-07  5.333E-01  3.094E+02
  3.125E-04  4.875E-02  7.127E-01  1.490E-06  5.333E-01  3.095E+02
  3.125E-04  5.125E-02  6.781E-01  1.987E-07  5.333E-01  3.095E+02
  3.125E-04  5.375E-02  6.434E-01  1.024E-06  5.332E-01  3.096E+02
  3.125E-04  5.625E-02  6.087E-01 -1.169E-07  5.332E-01  3.097E+02
  3.125E-04  5.875E-02  5.740E-01  4.411E-07  5.332E-01  3.097E+02
  3.125E-04  6.125E-02  5.393E-01  1.717E-07  5.332E-01  3.098E+02
  3.125E-04  6.375E-02  5.046E-01  2.055E-08  5.332E-01  3.098E+02
  3.125E-04  6.625E-02  4.698E-01 -2.467E-07  5.332E-01  3.099E+02
  3.125E-04  6.875E-02  4.351E-01 -1.622E-07  5.332E-01  3.099E+02
  3.125E-04  7.125E-02  4.004E-01 -2.101E-07  5.332E-01  3.100E+02
  3.125E-04  7.375E-02  3.656E-01 -3.731E-07  5.332E-01  3.100E+02
  3.125E-04  7.625E-02  3.308E-01 -5.825E-07  5.332E-01  3.100E+02
  3.125E-04  7.875E-02  2.961E-01 -6.040E-07  5.332E-01  3.101E+02
  3.125E-04  8.125E-02  2.613E-01 -7.077E-07  5.332E-01  3.101E+02
  3.125E-04  8.375E-02  2.265E-01 -8.719E-07  5.332E-01  3.102E+02
  3.125E-04  8.625E-02  1.917E-01 -8.305E-07  5.332E-01  3.102E+02
  3.125E-04  8.875E-02  1.568E-01 -9.576E-07  5.332E-01  3.102E+02
  3.125E-04  9.125E-02  1.220E-01 -9.805E-07  5.332E-01  3.103E+02
  3.125E-04  9.375E-02  8.718E-02 -9.702E-07  5.333E-01  3.103E+02
  3.125E-04  9.625E-02  5.231E-02 -1.224E-06  5.333E-01  3.103E+02
  3.125E-04  9.875E-02  1.748E-02 -1.011E-06  5.333E-01  3.104E+02
  3.125E-04  1.000E-01  0.000E+00 -1.011E-06  5.333E-01  3.104E+02
  4.375E-04  0.000E+00  1.386E+00  1.175E-05  7.284E-01  2.931E+02
  4.375E-04  1.250E-03  1.369E+00  1.175E-05  7.284E-01  2.965E+02
  4.375E-04  3.750E-03  1.335E+00  2.024E-05  7.282E-01  3.008E+02
  4.375E-04  6.250E-03  1.301E+00  1.842E-05  7.280E-01  3.027E+02
  4.375E-04  8.750E-03  1.266E+00  1.703E-05  7.278E-01  3.038E+02
  4.375E-04  1.125E-02  1.232E+00  1.433E-05  7.276E-01  3.046E+02
  4.375E-04  1.375E-02  1.197E+00  1.207E-05  7.275E-01  3.051E+02
  4.375E-04  1.625E-02  1.163E+00  1.166E-05  7.274E-01  3.056E+02
  4.375E-04  1.875E-02  1.128E+00  8.973E-06  7.273E-01  3.059E+02
  4.375E-04  2.125E-02  1.094E+00  9.043E-06  7.272E-01  3.062E+02
  4.375E-04  2.375E-02  1.059E+00  7.055E-06  7.271E-01  3.065E+02
  4.375E-04  2.625E-02  1.024E+00  6.674E-06  7.270E-01  3.067E+02
  4.375E-04  2.875E-02  9.898E-01  4.549E-06  7.269E-01  3.069E+02
  4.375E-04  3.125E-02  9.552E-01  4.655E-06  7.269E-01  3.071E+02
  4.375E-04  3.375E-02  9.206E-01  5.166E-06  7.268E-01  3.073E+02
  4.375E-04  3.625E-02  8.860E-01  3.889E-06  7.267E-01  3.074E+02
  4.375E-04  3.875E-02  8.513E-01  4.842E-06  7.267E-01  3.076E+02
  4.375E-04  4.125E-02  8.167E-01  2.736E-06  7.267E-01  3.077E+02
  4.375E-04  4.375E-02  7.821E-01  3.591E-06  7.266E-01  3.078E+02
  4.375E-04  4.625E-02  7.474E-01  2.119E-06  7.266E-01  3.079E+02
  4.375E-04  4.875E-02  7.127E-01  2.768E-06  7.265E-01  3.080E+02
  4.375E-04  5.125E-02  6.781E-01  8.022E-07  7.265E-01  3.081E+02
  4.375E-04  5.375E-02  6.434E-01  1.913E-06  7.265E-01  3.082E+02
  4.375E-04  5.625E-02  6.087E-01  1.950E-07  7.265E-01  3.083E+02
  4.375E-04  5.875E-02  5.740E-01  9.451E-07  7.265E-01  3.084E+02
  4.375E-04  6.125E-02  5.393E-01  5.368E-07  7.264E-01  3.084E+02
  4.375E-04  6.375E-02  5.046E-01  3.105E-07  7.264E-01  3.085E+02
  4.375E-04  6.625E-02  4.698E-01 -1.646E-07  7.264E-01  3.086E+02
  4.375E-04  6.875E-02  4.351E-01 -1.396E-07  7.264E-01  3.086E+02
  4.375E-04  7.125E-02  4.004E-01 -1.848E-07  7.264E-01  3.087E+02
  4.375E-04  7.375E-02  3.656E-01 -5.341E-07  7.264E-01  3.088E+02
  4.375E-04  7.625E-02  3.308E-01 -7.804E-07  7.264E-01  3.088E+02
  4.375E-04  7.875E-02  2.961E-01 -9.305E-07  7.264E-01  3.089E+02
  4.375E-04  8.125E-02  2.613E-01 -1.135E-06  7.264E-01  3.089E+02
  4.375E-04  8.375E-02  2.265E-01 -1.336E-06  7.264E-01  3.090E+02
  4.375E-04  8.625E-02  1.917E-01 -1.394E-06  7.264E-01  3.090E+02
  4.375E-04  8.875E-02  1.568E-01 -1.555E-06  7.264E-01  3.091E+02
  4.375E-04  9.125E-02  1.220E-01 -1.669E-06  7.264E-01  3.091E+02
  4.375E-04  9.375E-02  8.718E-02 -1.529E-06  7.265E-01  3.092E+02
  4.375E-04  9.625E-02  5.231E-02 -2.229E-06  7.265E-01  3.092E+02
  4.375E-04  9.875E-02  1.748E-02 -1.992E-06  7.265E-01  3.093E+02
  4.375E-04  1.000E-01  0.000E+00 -1.992E-06  7.265E-01  3.093E+02
  5.625E-04  0.000E+00  1.386E+00  1.626E-05  9.107E-01  2.931E+02
  5.625E-04  1.250E-03  1.369E+00  1.626E-05  9.107E-01  2.948E+02
  5.625E-04  3.750E-03  1.335E+00  2.958E-05  9.105E-01  2.981E+02
  5.625E-04  6.250E-03  1.301E+00  2.850E-05  9.103E-01  3.001E+02
  5.625E-04  8.750E-03  1.266E+00  2.626E-05  9.101E-01  3.014E+02
  5.625E-04  1.125E-02  1.232E+00  2.261E-05  9.100E-01  3.023E+02
  5.625E-04  1.375E-02  1.197E+00  1.932E-05  9.098E-01  3.030E+02
  5.625E-04  1.625E-02  1.163E+00  1.824E-05  9.097E-01  3.035E+02
  5.625E-04  1.875E-02  1.128E+00  1.449E-05  9.095E-01  3.040E+02
  5.625E-04  2.125E-02  1.094E+00  1.419E-05  9.094E-01  3.044E+02
  5.625E-04  2.375E-02  1.059E+00  1.194E-05  9.093E-01  3.047E+02
  5.625E-04  2.625E-02  1.024E+00  1.116E-05  9.092E-01  3.050E+02
  5.625E-04  2.875E-02  9.898E-01  8.579E-06  9.091E-01  3.052E+02
  5.625E-04  3.125E-02  9.552E-01  8.169E-06  9.090E-01  3.054E+02
  5.625E-04  3.375E-02  9.206E-01  8.451E-06  9.089E-01  3.057E+02
  5.625E-04  3.625E-02  8.860E-01  6.677E-06  9.089E-01  3.058E+02
  5.625E-04  3.875E-02  8.513E-01  7.710E-06  9.088E-01  3.060E+02
  5.625E-04  4.125E-02  8.167E-01  5.135E-06  9.088E-01  3.062E+02
  5.625E-04  4.375E-02  7.821E-01  5.994E-06  9.087E-01  3.063E+02
  5.625E-04  4.625E-02  7.474E-01  3.832E-06  9.087E-01  3.064E+02
  5.625E-04  4.875E-02  7.127E-01  4.488E-06  9.086E-01  3.066E+02
  5.625E-04  5.125E-02  6.781E-01  1.927E-06  9.086E-01  3.067E+02
  5.625E-04  5.375E-02  6.434E-01  3.155E-06  9.086E-01  3.068E+02
  5.625E-04  5.625E-02  6.087E-01  1.068E-06  9.085E-01  3.069E+02
  5.625E-04  5.875E-02  5.740E-01  1.840E-06  9.085E-01  3.070E+02
  5.625E-04  6.125E-02  5.393E-01  1.307E-06  9.085E-01  3.071E+02
  5.625E-04  6.375E-02  5.046E-01  9.134E-07  9.085E-01  3.072E+02
  5.625E-04  6.625E-02  4.698E-01  3.870E-07  9.084E-01  3.073E+02
  5.625E-04  6.875E-02  4.351E-01  1.676E-07  9.084E-01  3.074E+02
  5.625E-04  7.125E-02  4.004E-01  9.412E-08  9.084E-01  3.074E+02
  5.625E-04  7.375E-02  3.656E-01 -4.446E-07  9.084E-01  3.075E+02
  5.625E-04  7.625E-02  3.308E-01 -8.054E-07  9.084E-01  3.076E+02
  5.625E-04  7.875E-02  2.961E-01 -1.114E-06  9.084E-01  3.077E+02
  5.625E-04  8.125E-02  2.613E-01 -1.442E-06  9.084E-01  3.077E+02
  5.625E-04  8.375E-02  2.265E-01 -1.658E-06  9.084E-01  3.078E+02
  5.625E-04  8.625E-02  1.917E-01 -1.835E-06  9.084E-01  3.079E+02
  5.625E-04  8.875E-02  1.568E-01 -2.029E-06  9.084E-01  3.079E+02
  5.625E-04  9.125E-02  1.220E-01 -2.308E-06  9.084E-01  3.080E+02
  5.625E-04  9.375E-02  8.718E-02 -2.051E-06  9.085E-01  3.081E+02
  5.625E-04  9.625E-02  5.231E-02 -3.217E-06  9.085E-01  3.081E+02
  5.625E-04  9.875E-02  1.748E-02 -2.980E-06  9.085E-01  3.082E+02
  5.625E-04  1.000E-01  0.000E+00 -2.980E-06  9.085E-01  3.082E+02
  6.875E-04  0.000E+00  1.386E+00  1.905E-05  1.082E+00  2.931E+02
  6.875E-04  1.250E-03  1.369E+00  1.905E-05  1.082E+00  2.938E+02
  6.875E-04  3.750E-03  1.335E+00  3.678E-05  1.081E+00  2.961E+02
  6.875E-04  6.250E-03  1.301E+00  3.790E-05  1.081E+00  2.979E+02
  6.875E-04  8.750E-03  1.266E+00  3.541E-05  1.081E+00  2.993E+02
  6.875E-04  1.125E-02  1.232E+00  3.151E-05  1.081E+00  3.002E+02
  6.875E-04  1.375E-02  1.197E+00  2.712E-05  1.081E+00  3.010E+02
  6.875E-04  1.625E-02  1.163E+00  2.516E-05  1.081E+00  3.016E+02
  6.875E-04  1.875E-02  1.128E+00  2.120E-05  1.080E+00  3.021E+02
  6.875E-04  2.125E-02  1.094E+00  2.027E-05  1.080E+00  3.026E+02
  6.875E-04  2.375E-02  1.059E+00  1.741E-05  1.080E+00  3.029E+02
  6.875E-04  2.625E-02  1.024E+00  1.623E-05  1.080E+00  3.033E+02
  6.875E-04  2.875E-02  9.898E-01  1.337E-05  1.080E+00  3.036E+02
  6.875E-04  3.125E-02  9.552E-01  1.261E-05  1.080E+00  3.038E+02
  6.875E-04  3.375E-02  9.206E-01  1.243E-05  1.080E+00  3.041E+02
  6.875E-04  3.625E-02  8.860E-01  9.759E-06  1.080E+00  3.043E+02
  6.875E-04  3.875E-02  8.513E-01  1.087E-05  1.080E+00  3.045E+02
  6.875E-04  4.125E-02  8.167E-01  8.033E-06  1.080E+00  3.047E+02
  6.875E-04  4.375E-02  7.821E-01  8.821E-06  1.080E+00  3.048E+02
  6.875E-04  4.625E-02  7.474E-01  6.115E-06  1.080E+00  3.050E+02
  6.875E-04  4.875E-02  7.127E-01  6.810E-06  1.079E+00  3.052E+02
  6.875E-04  5.125E-02  6.781E-01  3.610E-06  1.079E+00  3.053E+02
  6.875E-04  5.375E-02  6.434E-01  4.780E-06  1.079E+00  3.054E+02
  6.875E-04  5.625E-02  6.087E-01  2.318E-06  1.079E+00  3.056E+02
  6.875E-04  5.875E-02  5.740E-01  3.045E-06  1.079E+00  3.057E+02
  6.875E-04  6.125E-02  5.393E-01  2.439E-06  1.079E+00  3.058E+02
  6.875E-04  6.375E-02  5.046E-01  1.857E-06  1.079E+00  3.059E+02
  6.875E-04  6.625E-02  4.698E-01  1.221E-06  1.079E+00  3.060E+02
  6.875E-04  6.875E-02  4.351E-01  7.244E-07  1.079E+00  3.061E+02
  6.875E-04  7.125E-02  4.004E-01  5.740E-07  1.079E+00  3.062E+02
  6.875E-04  7.375E-02  3.656E-01 -1.297E-07  1.079E+00  3.063E+02
  6.875E-04  7.625E-02  3.308E-01 -6.458E-07  1.079E+00  3.064E+02
  6.875E-04  7.875E-02  2.961E-01 -1.078E-06  1.079E+00  3.065E+02
  6.875E-04  8.125E-02  2.613E-01 -1.574E-06  1.079E+00  3.066E+02
  6.875E-04  8.375E-02  2.265E-01 -1.819E-06  1.079E+00  3.067E+02
  6.875E-04  8.625E-02  1.917E-01 -2.132E-06  1.079E+00  3.067E+02
  6.875E-04  8.875E-02  1.568E-01 -2.360E-06  1.079E+00  3.068E+02
  6.875E-04  9.125E-02  1.220E-01 -2.819E-06  1.079E+00  3.069E+02
  6.875E-04  9.375E-02  8.718E-02 -2.479E-06  1.079E+00  3.070E+02
  6.875E-04  9.625E-02  5.231E-02 -4.080E-06  1.079E+00  3.070E+02
  6.875E-04  9.875E-02  1.748E-02 -3.841E-06  1.079E+00  3.071E+02
  6.875E-04  1.000E-01  0.000E+00 -3.841E-06  1.079E+00  3.071E+02
  8.125E-04  0.000E+00  1.386E+00  2.008E-05  1.241E+00  2.931E+02
  8.125E-04  1.250E-03  1.369E+00  2.008E-05  1.241E+00  2.934E+02
  8.125E-04  3.750E-03  1.335E+00  4.085E-05  1.241E+00  2.947E+02
  8.125E-04  6.250E-03  1.301E+00  4.493E-05  1.241E+00  2.962E+02
  8.125E-04  8.750E-03  1.266E+00  4.325E-05  1.241E+00  2.974E+02
  8.125E-04  1.125E-02  1.232E+00  3.987E-05  1.241E+00  2.984E+02
  8.125E-04  1.375E-02  1.197E+00  3.475E-05  1.240E+00  2.992E+02
  8.125E-04  1.625E-02  1.163E+00  3.199E-05  1.240E+00  2.998E+02
  8.125E-04  1.875E-02  1.128E+00  2.821E-05  1.240E+00  3.004E+02
  8.125E-04  2.125E-02  1.094E+00  2.703E-05  1.240E+00  3.009E+02
  8.125E-04  2.375E-02  1.059E+00  2.320E-05  1.240E+00  3.013E+02
  8.125E-04  2.625E-02  1.024E+00  2.171E-05  1.240E+00  3.017E+02
  8.125E-04  2.875E-02  9.898E-01  1.854E-05  1.240E+00  3.020E+02
  8.125E-04  3.125E-02  9.552E-01  1.762E-05  1.240E+00  3.023E+02
  8.125E-04  3.375E-02  9.206E-01  1.686E-05  1.239E+00  3.026E+02
  8.125E-04  3.625E-02  8.860E-01  1.336E-05  1.239E+00  3.028E+02
  8.125E-04  3.875E-02  8.513E-01  1.435E-05  1.239E+00  3.030E+02
  8.125E-04  4.125E-02  8.167E-01  1.127E-05  1.239E+00  3.032E+02
  8.125E-04  4.375E-02  7.821E-01  1.193E-05  1.239E+00  3.034E+02
  8.125E-04  4.625E-02  7.474E-01  8.592E-06  1.239E+00  3.036E+02
  8.125E-04  4.875E-02  7.127E-01  9.385E-06  1.239E+00  3.038E+02
  8.125E-04  5.125E-02  6.781E-01  5.750E-06  1.239E+00  3.040E+02
  8.125E-04  5.375E-02  6.434E-01  6.726E-06  1.239E+00  3.041E+02
  8.125E-04  5.625E-02  6.087E-01  4.013E-06  1.239E+00  3.043E+02
  8.125E-04  5.875E-02  5.740E-01  4.642E-06  1.239E+00  3.044E+02
  8.125E-04  6.125E-02  5.393E-01  3.912E-06  1.239E+00  3.045E+02
  8.125E-04  6.375E-02  5.046E-01  3.143E-06  1.239E+00  3.047E+02
  8.125E-04  6.625E-02  4.698E-01  2.280E-06  1.239E+00  3.048E+02
  8.125E-04  6.875E-02  4.351E-01  1.615E-06  1.239E+00  3.049E+02
  8.125E-04  7.125E-02  4.004E-01  1.275E-06  1.239E+00  3.050E+02
  8.125E-04  7.375E-02  3.656E-01  4.326E-07  1.239E+00  3.051E+02
  8.125E-04  7.625E-02  3.308E-01 -1.994E-07  1.239E+00  3.052E+02
  8.125E-04  7.875E-02  2.961E-01 -7.761E-07  1.239E+00  3.053E+02
  8.125E-04  8.125E-02  2.613E-01 -1.406E-06  1.239E+00  3.054E+02
  8.125E-04  8.375E-02  2.265E-01 -1.712E-06  1.239E+00  3.055E+02
  8.125E-04  8.625E-02  1.917E-01 -2.184E-06  1.239E+00  3.056E+02
  8.125E-04  8.875E-02  1.568E-01 -2.476E-06  1.239E+00  3.057E+02
  8.125E-04  9.125E-02  1.220E-01 -3.141E-06  1.239E+00  3.058E+02
  8.125E-04  9.375E-02  8.718E-02 -2.759E-06  1.239E+00  3.059E+02
  8.125E-04  9.625E-02  5.231E-02 -4.732E-06  1.239E+00  3.060E+02
  8.125E-04  9.875E-02  1.748E-02 -4.506E-06  1.239E+00  3.061E+02
  8.125E-04  1.000E-01  0.000E+00 -4.506E-06  1.239E+00  3.061E+02
  9.375E-04  0.000E+00  1.386E+00  1.995E-05  1.389E+00  2.931E+02
  9.375E-04  1.250E-03  1.369E+00  1.995E-05  1.389E+00  2.932E+02
  9.375E-04  3.750E-03  1.335E+00  4.226E-05  1.389E+00  2.939E+02
  9.375E-04  6.250E-03  1.301E+00  4.875E-05  1.389E+00  2.950E+02
  9.375E-04  8.750E-03  1.266E+00  4.885E-05  1.389E+00  2.960E+02
  9.375E-04  1.125E-02  1.232E+00  4.641E-05  1.389E+00  2.969E+02
  9.375E-04  1.375E-02  1.197E+00  4.130E-05  1.389E+00  2.976E+02
  9.375E-04  1.625E-02  1.163E+00  3.832E-05  1.389E+00  2.983E+02
  9.375E-04  1.875E-02  1.128E+00  3.455E-05  1.388E+00  2.989E+02
  9.375E-04  2.125E-02  1.094E+00  3.325E-05  1.388E+00  2.993E+02
  9.375E-04  2.375E-02  1.059E+00  2.891E-05  1.388E+00  2.998E+02
  9.375E-04  2.625E-02  1.024E+00  2.714E-05  1.388E+00  3.002E+02
  9.375E-04  2.875E-02  9.898E-01  2.383E-05  1.388E+00  3.005E+02
  9.375E-04  3.125E-02  9.552E-01  2.246E-05  1.388E+00  3.008E+02
  9.375E-04  3.375E-02  9.206E-01  2.118E-05  1.388E+00  3.011E+02
  9.375E-04  3.625E-02  8.860E-01  1.738E-05  1.388E+00  3.014E+02
  9.375E-04  3.875E-02  8.513E-01  1.811E-05  1.388E+00  3.016E+02
  9.375E-04  4.125E-02  8.167E-01  1.475E-05  1.388E+00  3.019E+02
  9.375E-04  4.375E-02  7.821E-01  1.517E-05  1.388E+00  3.021E+02
  9.375E-04  4.625E-02  7.474E-01  1.128E-05  1.387E+00  3.023E+02
  9.375E-04  4.875E-02  7.127E-01  1.201E-05  1.387E+00  3.025E+02
  9.375E-04  5.125E-02  6.781E-01  8.141E-06  1.387E+00  3.027E+02
  9.375E-04  5.375E-02  6.434E-01  8.811E-06  1.387E+00  3.028E+02
  9.375E-04  5.625E-02  6.087E-01  5.995E-06  1.387E+00  3.030E+02
  9.375E-04  5.875E-02  5.740E-01  6.505E-06  1.387E+00  3.031E+02
  9.375E-04  6.125E-02  5.393E-01  5.650E-06  1.387E+00  3.033E+02
  9.375E-04  6.375E-02  5.046E-01  4.650E-06  1.387E+00  3.034E+02
  9.375E-04  6.625E-02  4.698E-01  3.599E-06  1.387E+00  3.036E+02
  9.375E-04  6.875E-02  4.351E-01  2.697E-06  1.387E+00  3.037E+02
  9.375E-04  7.125E-02  4.004E-01  2.158E-06  1.387E+00  3.038E+02
  9.375E-04  7.375E-02  3.656E-01  1.151E-06  1.387E+00  3.040E+02
  9.375E-04  7.625E-02  3.308E-01  4.464E-07  1.387E+00  3.041E+02
  9.375E-04  7.875E-02  2.961E-01 -3.073E-07  1.387E+00  3.042E+02
  9.375E-04  8.125E-02  2.613E-01 -1.030E-06  1.387E+00  3.043E+02
  9.375E-04  8.375E-02  2.265E-01 -1.440E-06  1.387E+00  3.044E+02
  9.375E-04  8.625E-02  1.917E-01 -2.042E-06  1.387E+00  3.045E+02
  9.375E-04  8.875E-02  1.568E-01 -2.407E-06  1.387E+00  3.046E+02
  9.375E-04  9.125E-02  1.220E-01 -3.263E-06  1.387E+00  3.047E+02
  9.375E-04  9.375E-02  8.718E-02 -2.885E-06  1.387E+00  3.048E+02
  9.375E-04  9.625E-02  5.231E-02 -5.134E-06  1.387E+00  3.049E+02
  9.375E-04  9.875E-02  1.748E-02 -4.945E-06  1.387E+00  3.051E+02
  9.375E-04  1.000E-01  0.000E+00 -4.945E-06  1.387E+00  3.051E+02
  1.063E-03  0.000E+00  1.386E+00  1.910E-05  1.526E+00  2.931E+02
  1.063E-03  1.250E-03  1.369E+00  1.910E-05  1.526E+00  2.931E+02
  1.063E-03  3.750E-03  1.335E+00  4.159E-05  1.526E+00  2.935E+02
  1.063E-03  6.250E-03  1.301E+00  4.996E-05  1.526E+00  2.942E+02
  1.063E-03  8.750E-03  1.266E+00  5.210E-05  1.526E+00  2.949E+02
  1.063E-03  1.125E-02  1.232E+00  5.065E-05  1.526E+00  2.957E+02
  1.063E-03  1.375E-02  1.197E+00  4.616E-05  1.525E+00  2.964E+02
  1.063E-03  1.625E-02  1.163E+00  4.346E-05  1.525E+00  2.970E+02
  1.063E-03  1.875E-02  1.128E+00  3.977E-05  1.525E+00  2.975E+02
  1.063E-03  2.125E-02  1.094E+00  3.839E-05  1.525E+00  2.980E+02
  1.063E-03  2.375E-02  1.059E+00  3.390E-05  1.525E+00  2.984E+02
  1.063E-03  2.625E-02  1.024E+00  3.193E-05  1.525E+00  2.988E+02
  1.063E-03  2.875E-02  9.898E-01  2.845E-05  1.525E+00  2.992E+02
  1.063E-03  3.125E-02  9.552E-01  2.680E-05  1.525E+00  2.995E+02
  1.063E-03  3.375E-02  9.206E-01  2.532E-05  1.525E+00  2.998E+02
  1.063E-03  3.625E-02  8.860E-01  2.125E-05  1.525E+00  3.001E+02
  1.063E-03  3.875E-02  8.513E-01  2.177E-05  1.525E+00  3.004E+02
  1.063E-03  4.125E-02  8.167E-01  1.809E-05  1.525E+00  3.006E+02
  1.063E-03  4.375E-02  7.821E-01  1.826E-05  1.524E+00  3.008E+02
  1.063E-03  4.625E-02  7.474E-01  1.412E-05  1.524E+00  3.010E+02
  1.063E-03  4.875E-02  7.127E-01  1.470E-05  1.524E+00  3.012E+02
  1.063E-03  5.125E-02  6.781E-01  1.065E-05  1.524E+00  3.014E+02
  1.063E-03  5.375E-02  6.434E-01  1.101E-05  1.524E+00  3.016E+02
  1.063E-03  5.625E-02  6.087E-01  8.008E-06  1.524E+00  3.018E+02
  1.063E-03  5.875E-02  5.740E-01  8.325E-06  1.524E+00  3.020E+02
  1.063E-03  6.125E-02  5.393E-01  7.363E-06  1.524E+00  3.021E+02
  1.063E-03  6.375E-02  5.046E-01  6.217E-06  1.524E+00  3.023E+02
  1.063E-03  6.625E-02  4.698E-01  5.058E-06  1.524E+00  3.024E+02
  1.063E-03  6.875E-02  4.351E-01  3.869E-06  1.524E+00  3.026E+02
  1.063E-03  7.125E-02  4.004E-01  3.130E-06  1.524E+00  3.027E+02
  1.063E-03  7.375E-02  3.656E-01  1.949E-06  1.524E+00  3.028E+02
  1.063E-03  7.625E-02  3.308E-01  1.161E-06  1.524E+00  3.030E+02
  1.063E-03  7.875E-02  2.961E-01  2.419E-07  1.524E+00  3.031E+02
  1.063E-03  8.125E-02  2.613E-01 -5.516E-07  1.524E+00  3.032E+02
  1.063E-03  8.375E-02  2.265E-01 -1.082E-06  1.524E+00  3.034E+02
  1.063E-03  8.625E-02  1.917E-01 -1.794E-06  1.524E+00  3.035E+02
  1.063E-03  8.875E-02  1.568E-01 -2.231E-06  1.524E+00  3.036E+02
  1.063E-03  9.125E-02  1.220E-01 -3.205E-06  1.524E+00  3.037E+02
  1.063E-03  9.375E-02  8.718E-02 -2.865E-06  1.524E+00  3.038E+02
  1.063E-03  9.625E-02  5.231E-02 -5.291E-06  1.524E+00  3.039E+02
  1.063E-03  9.875E-02  1.748E-02 -5.161E-06  1.524E+00  3.041E+02
  1.063E-03  1.000E-01  0.000E+00 -5.161E-06  1.524E+00  3.041E+02
  1.188E-03  0.000E+00  1.386E+00  1.790E-05  1.651E+00  2.931E+02
  1.188E-03  1.250E-03  1.369E+00  1.790E-05  1.651E+00  2.931E+02
  1.188E-03  3.750E-03  1.335E+00  3.946E-05  1.651E+00  2.933E+02
  1.188E-03  6.250E-03  1.301E+00  4.905E-05  1.651E+00  2.937E+02
  1.188E-03  8.750E-03  1.266E+00  5.265E-05  1.651E+00  2.942E+02
  1.188E-03  1.125E-02  1.232E+00  5.239E-05  1.651E+00  2.948E+02
  1.188E-03  1.375E-02  1.197E+00  4.900E-05  1.651E+00  2.954E+02
  1.188E-03  1.625E-02  1.163E+00  4.693E-05  1.651E+00  2.959E+02
  1.188E-03  1.875E-02  1.128E+00  4.347E-05  1.651E+00  2.964E+02
  1.188E-03  2.125E-02  1.094E+00  4.218E-05  1.651E+00  2.968E+02
  1.188E-03  2.375E-02  1.059E+00  3.787E-05  1.651E+00  2.972E+02
  1.188E-03  2.625E-02  1.024E+00  3.577E-05  1.651E+00  2.976E+02
  1.188E-03  2.875E-02  9.898E-01  3.208E-05  1.650E+00  2.980E+02
  1.188E-03  3.125E-02  9.552E-01  3.043E-05  1.650E+00  2.983E+02
  1.188E-03  3.375E-02  9.206E-01  2.895E-05  1.650E+00  2.986E+02
  1.188E-03  3.625E-02  8.860E-01  2.461E-05  1.650E+00  2.989E+02
  1.188E-03  3.875E-02  8.513E-01  2.497E-05  1.650E+00  2.992E+02
  1.188E-03  4.125E-02  8.167E-01  2.119E-05  1.650E+00  2.994E+02
  1.188E-03  4.375E-02  7.821E-01  2.105E-05  1.650E+00  2.997E+02
  1.188E-03  4.625E-02  7.474E-01  1.670E-05  1.650E+00  2.999E+02
  1.188E-03  4.875E-02  7.127E-01  1.719E-05  1.650E+00  3.001E+02
  1.188E-03  5.125E-02  6.781E-01  1.302E-05  1.650E+00  3.003E+02
  1.188E-03  5.375E-02  6.434E-01  1.312E-05  1.650E+00  3.005E+02
  1.188E-03  5.625E-02  6.087E-01  9.932E-06  1.650E+00  3.007E+02
  1.188E-03  5.875E-02  5.740E-01  1.009E-05  1.650E+00  3.008E+02
  1.188E-03  6.125E-02  5.393E-01  8.993E-06  1.650E+00  3.010E+02